                         Program Version 6.1.0-f.0  -   RELEASE   -
|  1> !d3
|  2> !nopop
|  3> !noautostart
|  4> !opt
|  5> !def2-tzvp
|  6> !b3lyp
|  7> %pal
|  8>     nprocs 16
|  9> end
| 10>
| 11> * xyz 0 1
| 12> O            -3.5662600000000002             1.7763899999999999             0.0000000000000000
| 13> H            -2.5962600000000000             1.7763899999999999             0.0000000000000000
| 14> H            -3.8895900000000001             1.3604000000000001            -0.8144400000000001
| 15> *
| 16>
| 17>                          ****END OF INPUT****
 Total Charge           Charge          ....    0
 Multiplicity           Mult            ....    1
 Number of Electrons    NEL             ....   10
Dispersion correction           -0.000573560
FINAL SINGLE POINT ENERGY       -76.426063088540
Dispersion correction             ... done (  0.0 sec)
Dispersion correction           -0.000573710
FINAL SINGLE POINT ENERGY       -76.426525696602
Dispersion correction             ... done (  0.0 sec)
Dispersion correction           -0.000573796
FINAL SINGLE POINT ENERGY       -76.426615528663
Dispersion correction             ... done (  0.0 sec)
Dispersion correction           -0.000573829
FINAL SINGLE POINT ENERGY       -76.426629001598
Dispersion correction             ... done (  0.0 sec)
                    ***********************HURRAY********************

CARTESIAN COORDINATES (ANGSTROEM)
---------------------------------
  O     -3.575708    1.782468    0.011900
  H     -2.613462    1.766299   -0.019757
  H     -3.862940    1.364413   -0.806583

 Multiplicity           Mult            ....    1
 Number of Electrons    NEL             ....   10
 Basis Dimension        Dim             ....   43

ORBITAL ENERGIES
----------------

  NO   OCC          E(Eh)            E(eV)
   0   2.0000     -19.123833      -520.3860
   1   2.0000      -1.010566       -27.4989
   2   2.0000      -0.531903       -14.4738
   3   2.0000      -0.387127       -10.5342
   4   2.0000      -0.312915        -8.5149
   5   0.0000       0.016524         0.4496
   6   0.0000       0.091505         2.4900
   7   0.0000       0.359515         9.7829
   8   0.0000       0.407490        11.0884
   9   0.0000       0.427849        11.6424

-------
TIMINGS
-------

Dispersion correction           -0.000573829
FINAL SINGLE POINT ENERGY       -76.426641165375

DIPOLE MOMENT
-------------

Method             : SCF
Type of density    : Electron Density
Multiplicity       :   1
Irrep              :   0
Energy             :   -76.4260673364052394 Eh
Basis              : AO
                                X                 Y                 Z
Electronic contribution:     -0.093254433       0.060001329       0.117465373
Nuclear contribution   :      0.561854118      -0.361430823      -0.707622105
                        -----------------------------------------
Total Dipole Moment    :      0.468599685      -0.301429494      -0.590156732
                        -----------------------------------------
Magnitude (a.u.)       :      0.811622063
Magnitude (Debye)      :      2.062979336

Rotational constants in cm-1:            27.552534            14.282892             9.406618
Rotational constants in MHz :        826004.192232        428190.329367        282003.310523

                             ****ORCA TERMINATED NORMALLY****
TOTAL RUN TIME: 0 days 0 hours 0 minutes 39 seconds 957 msec
