                         Program Version 6.0.1  -  RELEASE   -
|  1> !d3
|  2> !nopop
|  3> !noautostart
|  4> !opt
|  5> !def2-tzvp
|  6> !b3lyp
|  7> %pal
|  8>     nprocs 16
|  9> end
| 10>
| 11> * xyz 0 1
| 12> O            -3.5662600000000002             1.7763899999999999             0.0000000000000000
| 13> H            -2.5962600000000000             1.7763899999999999             0.0000000000000000
| 14> H            -3.8895900000000001             1.3604000000000001            -0.8144400000000001
| 15> *
| 16>
| 17>                          ****END OF INPUT****
 Total Charge           Charge          ....    0
 Multiplicity           Mult            ....    1
 Number of Electrons    NEL             ....   10
Dispersion correction           -0.000573560
FINAL SINGLE POINT ENERGY       -76.426062943547
Dispersion correction             ... done (  0.1 sec)
Dispersion correction           -0.000573710
FINAL SINGLE POINT ENERGY       -76.426525558271
Dispersion correction             ... done (  0.0 sec)
Dispersion correction           -0.000573796
FINAL SINGLE POINT ENERGY       -76.426615654945
Dispersion correction             ... done (  0.0 sec)
Dispersion correction           -0.000573829
FINAL SINGLE POINT ENERGY       -76.426629223260
Dispersion correction             ... done (  0.1 sec)
                    ***********************HURRAY********************

CARTESIAN COORDINATES (ANGSTROEM)
---------------------------------
  O     -3.575708    1.782468    0.011900
  H     -2.613463    1.766299   -0.019757
  H     -3.862940    1.364413   -0.806583

 Multiplicity           Mult            ....    1
 Number of Electrons    NEL             ....   10
 Basis Dimension        Dim             ....   43

ORBITAL ENERGIES
----------------

  NO   OCC          E(Eh)            E(eV)
   0   2.0000     -19.123639      -520.3807
   1   2.0000      -1.010494       -27.4969
   2   2.0000      -0.531846       -14.4723
   3   2.0000      -0.387057       -10.5323
   4   2.0000      -0.312841        -8.5128
   5   0.0000       0.016537         0.4500
   6   0.0000       0.091520         2.4904
   7   0.0000       0.359531         9.7833
   8   0.0000       0.407506        11.0888
   9   0.0000       0.427881        11.6432

-------
TIMINGS
-------

Dispersion correction           -0.000573829
FINAL SINGLE POINT ENERGY       -76.426629339955

DIPOLE MOMENT
-------------

Method             : SCF
Type of density    : Electron Density
Multiplicity       :   1
Irrep              :   0
Energy             :   -76.4260555109795945 Eh
Relativity type    :
Basis              : AO
                                X                 Y                 Z
Electronic contribution:     -0.093254810       0.060001580       0.117465865
Nuclear contribution   :      0.561854824      -0.361431298      -0.707623036
                        -----------------------------------------
Total Dipole Moment    :      0.468600014      -0.301429718      -0.590157170
                        -----------------------------------------
Magnitude (a.u.)       :      0.811622655
Magnitude (Debye)      :      2.062980841

Rotational constants in cm-1:            27.552487            14.282915             9.406622
Rotational constants in MHz :        826002.770480        428191.016198        282003.442715

                             ****ORCA TERMINATED NORMALLY****
TOTAL RUN TIME: 0 days 0 hours 1 minutes 4 seconds 688 msec
